7
Lattice="7.18 0.0 0.0 0.0 7.18 0.0 0.0 0.0 7.18" Properties=species:S:1:pos:R:3:Z:I:1:forces:R:3 pbc="F F F" energy=-42.2356339583 dipole="-3.59 -3.59 -3.59" free_energy=-42.2356339583
P      3.59000000       3.59000000       3.59000000       15      -0.00000000      -0.00000000       0.00000000 
F      3.59000000       3.59000000       5.20907261        9      -0.00000000      -0.00000000       0.00461998 
F      3.59000000       3.59000000       1.97092739        9      -0.00000000      -0.00000000      -0.00461998 
F      5.20907261       3.59000000       3.59000000        9       0.00461998      -0.00000000       0.00000000 
F      1.97092739       3.59000000       3.59000000        9      -0.00461998      -0.00000000       0.00000000 
F      3.59000000       5.20907261       3.59000000        9      -0.00000000       0.00461998       0.00000000 
F      3.59000000       1.97092739       3.59000000        9      -0.00000000      -0.00461998       0.00000000 
